[
   {
      "id": 1,
      "question": "What is the capital of France?",
      "options": ["Berlin", "Madrid", "Paris", "Rome"],
      "answerIndex": 2,
      "description": "Paris is the capital city of France."
    }, 
    {
      "id": 2,
      "question": "Which planet is known as the Red Planet?",
      "options": ["Earth", "Mars", "Jupiter", "Saturn"],
      "answerIndex": 1,
      "description": "Mars is often called the Red Planet because of its reddish appearance."
    },
    {
      "id": 3,
      "question": "What is the largest ocean on Earth?",
      "options": ["Atlantic Ocean", "Indian Ocean", "Arctic Ocean", "Pacific Ocean"],
      "answerIndex": 3,
      "description": "The Pacific Ocean is the largest and deepest ocean on Earth."
    },
    {
      "id": 4,
      "question": "Who wrote the play 'Romeo and Juliet'?",
      "options": ["William Shakespeare", "Jane Austen", "Mark Twain", "Charles Dickens"],
      "answerIndex": 0,
      "description": "'Romeo and Juliet' was written by William Shakespeare."
    },
    {
      "id": 5,
      "question": "What is the chemical symbol for water?",
      "options": ["H2O", "O2", "CO2", "NaCl"],
      "answerIndex": 0,
      "description": "Water is represented by the chemical formula H2O."
    },
    {
      "id": 6,
      "question": "Which element has the atomic number 1?",
      "options": ["Oxygen", "Carbon", "Hydrogen", "Helium"],
      "answerIndex": 2,
      "description": "Hydrogen has the atomic number 1 on the periodic table."
    },
    {
      "id": 7,
      "question": "Who painted the Mona Lisa?",
      "options": ["Vincent van Gogh", "Pablo Picasso", "Leonardo da Vinci", "Claude Monet"],
      "answerIndex": 2,
      "description": "The Mona Lisa was painted by Leonardo da Vinci."
    },
    {
      "id": 8,
      "question": "What is the hardest natural substance on Earth?",
      "options": ["Gold", "Iron", "Diamond", "Silver"],
      "answerIndex": 2,
      "description": "Diamond is the hardest natural substance known."
    },
    {
      "id": 9,
      "question": "In which year did the Titanic sink?",
      "options": ["1905", "1912", "1918", "1920"],
      "answerIndex": 1,
      "description": "The Titanic sank in 1912 during its maiden voyage."
    },
    {
      "id": 10,
      "question": "What is the smallest country in the world?",
      "options": ["Monaco", "Vatican City", "Malta", "Liechtenstein"],
      "answerIndex": 1,
      "description": "Vatican City is the smallest country in the world by area and population."
    },
    {
      "id": 11,
      "question": "What is the speed of light?",
      "options": ["300,000 km/s", "150,000 km/s", "450,000 km/s", "600,000 km/s"],
      "answerIndex": 0,
      "description": "The speed of light in a vacuum is approximately 300,000 kilometers per second."
    },
    {
      "id": 12,
      "question": "Who discovered penicillin?",
      "options": ["Alexander Fleming", "Marie Curie", "Louis Pasteur", "Isaac Newton"],
      "answerIndex": 0,
      "description": "Penicillin was discovered by Alexander Fleming in 1928."
    },
    {
      "id": 13,
      "question": "Which gas is most abundant in Earth's atmosphere?",
      "options": ["Oxygen", "Carbon Dioxide", "Nitrogen", "Hydrogen"],
      "answerIndex": 2,
      "description": "Nitrogen makes up about 78% of Earth's atmosphere."
    },
    {
      "id": 14,
      "question": "What is the main ingredient in guacamole?",
      "options": ["Tomato", "Onion", "Avocado", "Lime"],
      "answerIndex": 2,
      "description": "Avocado is the main ingredient in guacamole."
    },
    {
      "id": 15,
      "question": "Who wrote the novel '1984'?",
      "options": ["Aldous Huxley", "George Orwell", "Ray Bradbury", "J.D. Salinger"],
      "answerIndex": 1,
      "description": "'1984' is a dystopian novel written by George Orwell."
    },
    {
      "id": 16,
      "question": "What is the largest continent by land area?",
      "options": ["Africa", "Asia", "Europe", "North America"],
      "answerIndex": 1,
      "description": "Asia is the largest continent by land area."
    },
    {
      "id": 17,
      "question": "What is the freezing point of water?",
      "options": ["0°C", "32°C", "100°C", "-273°C"],
      "answerIndex": 0,
      "description": "Water freezes at 0°C (32°F) under normal atmospheric conditions."
    },
    {
      "id": 18,
      "question": "Which planet is the closest to the Sun?",
      "options": ["Venus", "Mars", "Mercury", "Earth"],
      "answerIndex": 2,
      "description": "Mercury is the closest planet to the Sun."
    },
    {
      "id": 19,
      "question": "Which country is known as the Land of the Rising Sun?",
      "options": ["China", "Japan", "South Korea", "Thailand"],
      "answerIndex": 1,
      "description": "Japan is often referred to as the Land of the Rising Sun."
    },
    {
      "id": 20,
      "question": "What is the largest mammal in the world?",
      "options": ["Elephant", "Blue Whale", "Giraffe", "Hippopotamus"],
      "answerIndex": 1,
      "description": "The Blue Whale is the largest mammal on Earth."
    },
    {
      "id": 21,
      "question": "Who was the first man to step on the Moon?",
      "options": ["Buzz Aldrin", "Yuri Gagarin", "Neil Armstrong", "Michael Collins"],
      "answerIndex": 2,
      "description": "Neil Armstrong was the first man to step on the Moon in 1969."
    },
    {
      "id": 22,
      "question": "What is the capital of Canada?",
      "options": ["Toronto", "Ottawa", "Vancouver", "Montreal"],
      "answerIndex": 1,
      "description": "Ottawa is the capital city of Canada."
    },
    {
      "id": 23,
      "question": "Which element is represented by the symbol 'Au'?",
      "options": ["Silver", "Oxygen", "Gold", "Iron"],
      "answerIndex": 2,
      "description": "The symbol 'Au' represents Gold on the periodic table."
    },
    {
      "id": 24,
      "question": "In which country did the Olympic Games originate?",
      "options": ["Italy", "Greece", "France", "Egypt"],
      "answerIndex": 1,
      "description": "The Olympic Games originated in ancient Greece."
    },
    {
      "id": 25,
      "question": "What is the boiling point of water?",
      "options": ["50°C", "100°C", "150°C", "200°C"],
      "answerIndex": 1,
      "description": "Water boils at 100°C (212°F) under normal atmospheric conditions."
    },
    {
      "id": 26,
      "question": "Which organ is responsible for pumping blood throughout the body?",
      "options": ["Liver", "Lungs", "Heart", "Kidneys"],
      "answerIndex": 2,
      "description": "The heart is responsible for pumping blood throughout the body."
    },
    {
      "id": 27,
      "question": "Who is known as the father of modern physics?",
      "options": ["Isaac Newton", "Albert Einstein", "Galileo Galilei", "Niels Bohr"],
      "answerIndex": 1,
      "description": "Albert Einstein is often referred to as the father of modern physics."
    },
    {
      "id": 28,
      "question": "Which language is the most widely spoken in the world?",
      "options": ["English", "Spanish", "Mandarin", "Hindi"],
      "answerIndex": 2,
      "description": "Mandarin Chinese is the most widely spoken language in the world by native speakers."
    },
    {
      "id": 29,
      "question": "What is the smallest bone in the human body?",
      "options": ["Stapes", "Femur", "Tibia", "Humerus"],
      "answerIndex": 0,
      "description": "The stapes, located in the ear, is the smallest bone in the human body."
    },
    {
      "id": 30,
      "question": "Which country is the largest by area?",
      "options": ["Canada", "China", "Russia", "United States"],
      "answerIndex": 2,
      "description": "Russia is the largest country in the world by area."
    }
  ]
  